 Output coordinates in a.u. (scale by  1.000000000 to convert to a.u.)

  No.       Tag          Charge          X              Y              Z
 ---- ---------------- ---------- -------------- -------------- --------------
    1 C                    6.0000     0.00000000     0.00000000     1.00000000
    2 C                    6.0000     0.00000000     0.00000000    -1.00000000
    3 H                    1.0000     1.00000000     0.00000000     1.80000000
    4 H                    1.0000    -1.00000000     0.00000000     1.80000000
    5 H                    1.0000    -1.00000000     0.00000000    -1.80000000
    6 H                    1.0000     1.00000000     0.00000000    -1.80000000

         Total SCF energy =    -76.762226601001

 Vector    1  Occ=2.000000D+00  E=-1.113747D+01  Symmetry=ag

 Vector    2  Occ=2.000000D+00  E=-1.112751D+01  Symmetry=b1u

 Vector    3  Occ=2.000000D+00  E=-1.175823D+00  Symmetry=ag

 Vector    4  Occ=2.000000D+00  E=-9.808453D-01  Symmetry=b1u

 Vector    5  Occ=2.000000D+00  E=-7.900821D-01  Symmetry=b3u

 Vector    6  Occ=2.000000D+00  E=-7.399097D-01  Symmetry=ag

 Vector    7  Occ=2.000000D+00  E=-5.374922D-01  Symmetry=b2g

 Vector    8  Occ=2.000000D+00  E=-4.469646D-01  Symmetry=b2u

 Vector    9  Occ=0.000000D+00  E= 2.128522D-01  Symmetry=ag

 Vector   10  Occ=0.000000D+00  E= 2.394681D-01  Symmetry=b3g

 Vector   11  Occ=0.000000D+00  E= 2.505574D-01  Symmetry=b1u

 Vector   12  Occ=0.000000D+00  E= 2.638021D-01  Symmetry=b3u

 Vector   13  Occ=0.000000D+00  E= 3.192497D-01  Symmetry=b2g

 Vector   14  Occ=0.000000D+00  E= 5.394588D-01  Symmetry=ag

 Vector   15  Occ=0.000000D+00  E= 5.742623D-01  Symmetry=b1u

 Vector   16  Occ=0.000000D+00  E= 6.174917D-01  Symmetry=b2u

 Vector   17  Occ=0.000000D+00  E= 7.210797D-01  Symmetry=b3u

 Vector   18  Occ=0.000000D+00  E= 8.293715D-01  Symmetry=b3g

 Vector   19  Occ=0.000000D+00  E= 9.062411D-01  Symmetry=ag

 Vector   20  Occ=0.000000D+00  E= 9.883383D-01  Symmetry=b2g

 Vector   21  Occ=0.000000D+00  E= 1.016007D+00  Symmetry=b1u

 Vector   22  Occ=0.000000D+00  E= 1.032701D+00  Symmetry=b3u

 Vector   23  Occ=0.000000D+00  E= 1.184490D+00  Symmetry=b1g

 Vector   24  Occ=0.000000D+00  E= 1.217626D+00  Symmetry=ag

 Vector   25  Occ=0.000000D+00  E= 1.363372D+00  Symmetry=b1u

 Vector   26  Occ=0.000000D+00  E= 1.390417D+00  Symmetry=b1u

 Vector   27  Occ=0.000000D+00  E= 1.429729D+00  Symmetry=b2u

 Vector   28  Occ=0.000000D+00  E= 1.552191D+00  Symmetry=au

 Vector   29  Occ=0.000000D+00  E= 1.654258D+00  Symmetry=b2g

 Vector   30  Occ=0.000000D+00  E= 1.862442D+00  Symmetry=ag

 Vector   31  Occ=0.000000D+00  E= 2.056753D+00  Symmetry=ag

 Vector   32  Occ=0.000000D+00  E= 2.232517D+00  Symmetry=b3g

 Vector   33  Occ=0.000000D+00  E= 2.272826D+00  Symmetry=b1g

 Vector   34  Occ=0.000000D+00  E= 2.305778D+00  Symmetry=b3u

 Vector   35  Occ=0.000000D+00  E= 2.430945D+00  Symmetry=b2g

 Vector   36  Occ=0.000000D+00  E= 2.552230D+00  Symmetry=b1u

 Vector   37  Occ=0.000000D+00  E= 2.553368D+00  Symmetry=b3u

 Vector   38  Occ=0.000000D+00  E= 2.605454D+00  Symmetry=b3g

 Vector   39  Occ=0.000000D+00  E= 2.661709D+00  Symmetry=b2u

 Vector   40  Occ=0.000000D+00  E= 2.861096D+00  Symmetry=b1u

 Vector   41  Occ=0.000000D+00  E= 2.996957D+00  Symmetry=au

 Vector   42  Occ=0.000000D+00  E= 3.499598D+00  Symmetry=b2g

 Vector   43  Occ=0.000000D+00  E= 3.680626D+00  Symmetry=ag

 Vector   44  Occ=0.000000D+00  E= 4.372960D+00  Symmetry=b1u

 Vector   45  Occ=0.000000D+00  E= 4.827129D+00  Symmetry=b3u

 Vector   46  Occ=0.000000D+00  E= 6.247416D+00  Symmetry=b2g

 Vector   47  Occ=0.000000D+00  E= 6.568522D+00  Symmetry=ag

 Vector   48  Occ=0.000000D+00  E= 8.804303D+00  Symmetry=b1u

       Multipole analysis of the density wrt the origin
       ------------------------------------------------

     L   x y z        total         open         nuclear
     -   - - -        -----         ----         -------
     0   0 0 0     -0.000000      0.000000     16.000000

     1   1 0 0      0.000000      0.000000      0.000000
     1   0 1 0      0.000000      0.000000      0.000000
     1   0 0 1     -0.000000      0.000000      0.000000

     2   2 0 0     -8.653692      0.000000      4.000000
     2   1 1 0      0.000000      0.000000      0.000000
     2   1 0 1      0.000000      0.000000      0.000000
     2   0 2 0     -9.130481      0.000000      0.000000
     2   0 1 1      0.000000      0.000000      0.000000

 Total times  cpu:       17.2s     wall:       36.0s
